+ 1 /NodeList/0/DeviceList/1/$ns3::CsmaNetDevice/TxQueue/Enqueue ns3::EthernetHeader ( length/type=0x806, source=00:00:00:00:00:01, destination=ff:ff:ff:ff:ff:ff) ns3::ArpHeader (request source mac: 00-06-00:00:00:00:00:01 source ipv4: 10.60.38.2 dest ipv4: 10.60.38.1) Payload (size=18) ns3::EthernetTrailer (fcs=0)
- 1 /NodeList/0/DeviceList/1/$ns3::CsmaNetDevice/TxQueue/Dequeue ns3::EthernetHeader ( length/type=0x806, source=00:00:00:00:00:01, destination=ff:ff:ff:ff:ff:ff) ns3::ArpHeader (request source mac: 00-06-00:00:00:00:00:01 source ipv4: 10.60.38.2 dest ipv4: 10.60.38.1) Payload (size=18) ns3::EthernetTrailer (fcs=0)
r 1.0021 /NodeList/2/DeviceList/1/$ns3::CsmaNetDevice/MacRx ns3::EthernetHeader ( length/type=0x806, source=00:00:00:00:00:01, destination=ff:ff:ff:ff:ff:ff) ns3::ArpHeader (request source mac: 00-06-00:00:00:00:00:01 source ipv4: 10.60.38.2 dest ipv4: 10.60.38.1) Payload (size=18) ns3::EthernetTrailer (fcs=0)
+ 1.0021 /NodeList/2/DeviceList/1/$ns3::CsmaNetDevice/TxQueue/Enqueue ns3::EthernetHeader ( length/type=0x806, source=00:00:00:00:00:02, destination=00:00:00:00:00:01) ns3::ArpHeader (reply source mac: 00-06-00:00:00:00:00:02 source ipv4: 10.60.38.1 dest mac: 00-06-00:00:00:00:00:01 dest ipv4: 10.60.38.2) Payload (size=18) ns3::EthernetTrailer (fcs=0)
- 1.0021 /NodeList/2/DeviceList/1/$ns3::CsmaNetDevice/TxQueue/Dequeue ns3::EthernetHeader ( length/type=0x806, source=00:00:00:00:00:02, destination=00:00:00:00:00:01) ns3::ArpHeader (reply source mac: 00-06-00:00:00:00:00:02 source ipv4: 10.60.38.1 dest mac: 00-06-00:00:00:00:00:01 dest ipv4: 10.60.38.2) Payload (size=18) ns3::EthernetTrailer (fcs=0)
r 1.00421 /NodeList/0/DeviceList/1/$ns3::CsmaNetDevice/MacRx ns3::EthernetHeader ( length/type=0x806, source=00:00:00:00:00:02, destination=00:00:00:00:00:01) ns3::ArpHeader (reply source mac: 00-06-00:00:00:00:00:02 source ipv4: 10.60.38.1 dest mac: 00-06-00:00:00:00:00:01 dest ipv4: 10.60.38.2) Payload (size=18) ns3::EthernetTrailer (fcs=0)
+ 1.00421 /NodeList/0/DeviceList/1/$ns3::CsmaNetDevice/TxQueue/Enqueue ns3::EthernetHeader ( length/type=0x800, source=00:00:00:00:00:01, destination=00:00:00:00:00:02) ns3::Ipv4Header (tos 0x0 ttl 64 id 0 protocol 1 offset (bytes) 0 flags [none] length: 1052 10.60.38.2 > 10.60.39.2) ns3::Icmpv4Header (type=8, code=0) ns3::Icmpv4Echo (identifier=0, sequence=0) ns3::EthernetTrailer (fcs=0)
- 1.00421 /NodeList/0/DeviceList/1/$ns3::CsmaNetDevice/TxQueue/Dequeue ns3::EthernetHeader ( length/type=0x800, source=00:00:00:00:00:01, destination=00:00:00:00:00:02) ns3::Ipv4Header (tos 0x0 ttl 64 id 0 protocol 1 offset (bytes) 0 flags [none] length: 1052 10.60.38.2 > 10.60.39.2) ns3::Icmpv4Header (type=8, code=0) ns3::Icmpv4Echo (identifier=0, sequence=0) ns3::EthernetTrailer (fcs=0)
r 1.00792 /NodeList/2/DeviceList/1/$ns3::CsmaNetDevice/MacRx ns3::EthernetHeader ( length/type=0x800, source=00:00:00:00:00:01, destination=00:00:00:00:00:02) ns3::Ipv4Header (tos 0x0 ttl 64 id 0 protocol 1 offset (bytes) 0 flags [none] length: 1052 10.60.38.2 > 10.60.39.2) ns3::Icmpv4Header (type=8, code=0) ns3::Icmpv4Echo (identifier=0, sequence=0) ns3::EthernetTrailer (fcs=0)
+ 1.00792 /NodeList/2/DeviceList/2/$ns3::CsmaNetDevice/TxQueue/Enqueue ns3::EthernetHeader ( length/type=0x806, source=00:00:00:00:00:03, destination=ff:ff:ff:ff:ff:ff) ns3::ArpHeader (request source mac: 00-06-00:00:00:00:00:03 source ipv4: 10.60.39.1 dest ipv4: 10.60.39.2) Payload (size=18) ns3::EthernetTrailer (fcs=0)
- 1.00792 /NodeList/2/DeviceList/2/$ns3::CsmaNetDevice/TxQueue/Dequeue ns3::EthernetHeader ( length/type=0x806, source=00:00:00:00:00:03, destination=ff:ff:ff:ff:ff:ff) ns3::ArpHeader (request source mac: 00-06-00:00:00:00:00:03 source ipv4: 10.60.39.1 dest ipv4: 10.60.39.2) Payload (size=18) ns3::EthernetTrailer (fcs=0)
r 1.01002 /NodeList/1/DeviceList/1/$ns3::CsmaNetDevice/MacRx ns3::EthernetHeader ( length/type=0x806, source=00:00:00:00:00:03, destination=ff:ff:ff:ff:ff:ff) ns3::ArpHeader (request source mac: 00-06-00:00:00:00:00:03 source ipv4: 10.60.39.1 dest ipv4: 10.60.39.2) Payload (size=18) ns3::EthernetTrailer (fcs=0)
+ 1.01002 /NodeList/1/DeviceList/1/$ns3::CsmaNetDevice/TxQueue/Enqueue ns3::EthernetHeader ( length/type=0x806, source=00:00:00:00:00:04, destination=00:00:00:00:00:03) ns3::ArpHeader (reply source mac: 00-06-00:00:00:00:00:04 source ipv4: 10.60.39.2 dest mac: 00-06-00:00:00:00:00:03 dest ipv4: 10.60.39.1) Payload (size=18) ns3::EthernetTrailer (fcs=0)
- 1.01002 /NodeList/1/DeviceList/1/$ns3::CsmaNetDevice/TxQueue/Dequeue ns3::EthernetHeader ( length/type=0x806, source=00:00:00:00:00:04, destination=00:00:00:00:00:03) ns3::ArpHeader (reply source mac: 00-06-00:00:00:00:00:04 source ipv4: 10.60.39.2 dest mac: 00-06-00:00:00:00:00:03 dest ipv4: 10.60.39.1) Payload (size=18) ns3::EthernetTrailer (fcs=0)
r 1.01212 /NodeList/2/DeviceList/2/$ns3::CsmaNetDevice/MacRx ns3::EthernetHeader ( length/type=0x806, source=00:00:00:00:00:04, destination=00:00:00:00:00:03) ns3::ArpHeader (reply source mac: 00-06-00:00:00:00:00:04 source ipv4: 10.60.39.2 dest mac: 00-06-00:00:00:00:00:03 dest ipv4: 10.60.39.1) Payload (size=18) ns3::EthernetTrailer (fcs=0)
+ 1.01212 /NodeList/2/DeviceList/2/$ns3::CsmaNetDevice/TxQueue/Enqueue ns3::EthernetHeader ( length/type=0x800, source=00:00:00:00:00:03, destination=00:00:00:00:00:04) ns3::Ipv4Header (tos 0x0 ttl 63 id 0 protocol 1 offset (bytes) 0 flags [none] length: 1052 10.60.38.2 > 10.60.39.2) ns3::Icmpv4Header (type=8, code=0) ns3::Icmpv4Echo (identifier=0, sequence=0) ns3::EthernetTrailer (fcs=0)
- 1.01212 /NodeList/2/DeviceList/2/$ns3::CsmaNetDevice/TxQueue/Dequeue ns3::EthernetHeader ( length/type=0x800, source=00:00:00:00:00:03, destination=00:00:00:00:00:04) ns3::Ipv4Header (tos 0x0 ttl 63 id 0 protocol 1 offset (bytes) 0 flags [none] length: 1052 10.60.38.2 > 10.60.39.2) ns3::Icmpv4Header (type=8, code=0) ns3::Icmpv4Echo (identifier=0, sequence=0) ns3::EthernetTrailer (fcs=0)
r 1.01584 /NodeList/1/DeviceList/1/$ns3::CsmaNetDevice/MacRx ns3::EthernetHeader ( length/type=0x800, source=00:00:00:00:00:03, destination=00:00:00:00:00:04) ns3::Ipv4Header (tos 0x0 ttl 63 id 0 protocol 1 offset (bytes) 0 flags [none] length: 1052 10.60.38.2 > 10.60.39.2) ns3::Icmpv4Header (type=8, code=0) ns3::Icmpv4Echo (identifier=0, sequence=0) ns3::EthernetTrailer (fcs=0)
+ 1.01584 /NodeList/1/DeviceList/1/$ns3::CsmaNetDevice/TxQueue/Enqueue ns3::EthernetHeader ( length/type=0x806, source=00:00:00:00:00:04, destination=ff:ff:ff:ff:ff:ff) ns3::ArpHeader (request source mac: 00-06-00:00:00:00:00:04 source ipv4: 10.60.39.2 dest ipv4: 10.60.39.1) Payload (size=18) ns3::EthernetTrailer (fcs=0)
- 1.01584 /NodeList/1/DeviceList/1/$ns3::CsmaNetDevice/TxQueue/Dequeue ns3::EthernetHeader ( length/type=0x806, source=00:00:00:00:00:04, destination=ff:ff:ff:ff:ff:ff) ns3::ArpHeader (request source mac: 00-06-00:00:00:00:00:04 source ipv4: 10.60.39.2 dest ipv4: 10.60.39.1) Payload (size=18) ns3::EthernetTrailer (fcs=0)
r 1.01794 /NodeList/2/DeviceList/2/$ns3::CsmaNetDevice/MacRx ns3::EthernetHeader ( length/type=0x806, source=00:00:00:00:00:04, destination=ff:ff:ff:ff:ff:ff) ns3::ArpHeader (request source mac: 00-06-00:00:00:00:00:04 source ipv4: 10.60.39.2 dest ipv4: 10.60.39.1) Payload (size=18) ns3::EthernetTrailer (fcs=0)
+ 1.01794 /NodeList/2/DeviceList/2/$ns3::CsmaNetDevice/TxQueue/Enqueue ns3::EthernetHeader ( length/type=0x806, source=00:00:00:00:00:03, destination=00:00:00:00:00:04) ns3::ArpHeader (reply source mac: 00-06-00:00:00:00:00:03 source ipv4: 10.60.39.1 dest mac: 00-06-00:00:00:00:00:04 dest ipv4: 10.60.39.2) Payload (size=18) ns3::EthernetTrailer (fcs=0)
- 1.01794 /NodeList/2/DeviceList/2/$ns3::CsmaNetDevice/TxQueue/Dequeue ns3::EthernetHeader ( length/type=0x806, source=00:00:00:00:00:03, destination=00:00:00:00:00:04) ns3::ArpHeader (reply source mac: 00-06-00:00:00:00:00:03 source ipv4: 10.60.39.1 dest mac: 00-06-00:00:00:00:00:04 dest ipv4: 10.60.39.2) Payload (size=18) ns3::EthernetTrailer (fcs=0)
r 1.02004 /NodeList/1/DeviceList/1/$ns3::CsmaNetDevice/MacRx ns3::EthernetHeader ( length/type=0x806, source=00:00:00:00:00:03, destination=00:00:00:00:00:04) ns3::ArpHeader (reply source mac: 00-06-00:00:00:00:00:03 source ipv4: 10.60.39.1 dest mac: 00-06-00:00:00:00:00:04 dest ipv4: 10.60.39.2) Payload (size=18) ns3::EthernetTrailer (fcs=0)
+ 1.02004 /NodeList/1/DeviceList/1/$ns3::CsmaNetDevice/TxQueue/Enqueue ns3::EthernetHeader ( length/type=0x800, source=00:00:00:00:00:04, destination=00:00:00:00:00:03) ns3::Ipv4Header (tos 0x0 ttl 64 id 0 protocol 1 offset (bytes) 0 flags [none] length: 1052 10.60.39.2 > 10.60.38.2) ns3::Icmpv4Header (type=0, code=0) ns3::Icmpv4Echo (identifier=0, sequence=0) ns3::EthernetTrailer (fcs=0)
- 1.02004 /NodeList/1/DeviceList/1/$ns3::CsmaNetDevice/TxQueue/Dequeue ns3::EthernetHeader ( length/type=0x800, source=00:00:00:00:00:04, destination=00:00:00:00:00:03) ns3::Ipv4Header (tos 0x0 ttl 64 id 0 protocol 1 offset (bytes) 0 flags [none] length: 1052 10.60.39.2 > 10.60.38.2) ns3::Icmpv4Header (type=0, code=0) ns3::Icmpv4Echo (identifier=0, sequence=0) ns3::EthernetTrailer (fcs=0)
r 1.02376 /NodeList/2/DeviceList/2/$ns3::CsmaNetDevice/MacRx ns3::EthernetHeader ( length/type=0x800, source=00:00:00:00:00:04, destination=00:00:00:00:00:03) ns3::Ipv4Header (tos 0x0 ttl 64 id 0 protocol 1 offset (bytes) 0 flags [none] length: 1052 10.60.39.2 > 10.60.38.2) ns3::Icmpv4Header (type=0, code=0) ns3::Icmpv4Echo (identifier=0, sequence=0) ns3::EthernetTrailer (fcs=0)
+ 1.02376 /NodeList/2/DeviceList/1/$ns3::CsmaNetDevice/TxQueue/Enqueue ns3::EthernetHeader ( length/type=0x806, source=00:00:00:00:00:02, destination=ff:ff:ff:ff:ff:ff) ns3::ArpHeader (request source mac: 00-06-00:00:00:00:00:02 source ipv4: 10.60.38.1 dest ipv4: 10.60.38.2) Payload (size=18) ns3::EthernetTrailer (fcs=0)
- 1.02376 /NodeList/2/DeviceList/1/$ns3::CsmaNetDevice/TxQueue/Dequeue ns3::EthernetHeader ( length/type=0x806, source=00:00:00:00:00:02, destination=ff:ff:ff:ff:ff:ff) ns3::ArpHeader (request source mac: 00-06-00:00:00:00:00:02 source ipv4: 10.60.38.1 dest ipv4: 10.60.38.2) Payload (size=18) ns3::EthernetTrailer (fcs=0)
r 1.02586 /NodeList/0/DeviceList/1/$ns3::CsmaNetDevice/MacRx ns3::EthernetHeader ( length/type=0x806, source=00:00:00:00:00:02, destination=ff:ff:ff:ff:ff:ff) ns3::ArpHeader (request source mac: 00-06-00:00:00:00:00:02 source ipv4: 10.60.38.1 dest ipv4: 10.60.38.2) Payload (size=18) ns3::EthernetTrailer (fcs=0)
+ 1.02586 /NodeList/0/DeviceList/1/$ns3::CsmaNetDevice/TxQueue/Enqueue ns3::EthernetHeader ( length/type=0x806, source=00:00:00:00:00:01, destination=00:00:00:00:00:02) ns3::ArpHeader (reply source mac: 00-06-00:00:00:00:00:01 source ipv4: 10.60.38.2 dest mac: 00-06-00:00:00:00:00:02 dest ipv4: 10.60.38.1) Payload (size=18) ns3::EthernetTrailer (fcs=0)
- 1.02586 /NodeList/0/DeviceList/1/$ns3::CsmaNetDevice/TxQueue/Dequeue ns3::EthernetHeader ( length/type=0x806, source=00:00:00:00:00:01, destination=00:00:00:00:00:02) ns3::ArpHeader (reply source mac: 00-06-00:00:00:00:00:01 source ipv4: 10.60.38.2 dest mac: 00-06-00:00:00:00:00:02 dest ipv4: 10.60.38.1) Payload (size=18) ns3::EthernetTrailer (fcs=0)
r 1.02796 /NodeList/2/DeviceList/1/$ns3::CsmaNetDevice/MacRx ns3::EthernetHeader ( length/type=0x806, source=00:00:00:00:00:01, destination=00:00:00:00:00:02) ns3::ArpHeader (reply source mac: 00-06-00:00:00:00:00:01 source ipv4: 10.60.38.2 dest mac: 00-06-00:00:00:00:00:02 dest ipv4: 10.60.38.1) Payload (size=18) ns3::EthernetTrailer (fcs=0)
+ 1.02796 /NodeList/2/DeviceList/1/$ns3::CsmaNetDevice/TxQueue/Enqueue ns3::EthernetHeader ( length/type=0x800, source=00:00:00:00:00:02, destination=00:00:00:00:00:01) ns3::Ipv4Header (tos 0x0 ttl 63 id 0 protocol 1 offset (bytes) 0 flags [none] length: 1052 10.60.39.2 > 10.60.38.2) ns3::Icmpv4Header (type=0, code=0) ns3::Icmpv4Echo (identifier=0, sequence=0) ns3::EthernetTrailer (fcs=0)
- 1.02796 /NodeList/2/DeviceList/1/$ns3::CsmaNetDevice/TxQueue/Dequeue ns3::EthernetHeader ( length/type=0x800, source=00:00:00:00:00:02, destination=00:00:00:00:00:01) ns3::Ipv4Header (tos 0x0 ttl 63 id 0 protocol 1 offset (bytes) 0 flags [none] length: 1052 10.60.39.2 > 10.60.38.2) ns3::Icmpv4Header (type=0, code=0) ns3::Icmpv4Echo (identifier=0, sequence=0) ns3::EthernetTrailer (fcs=0)
r 1.03168 /NodeList/0/DeviceList/1/$ns3::CsmaNetDevice/MacRx ns3::EthernetHeader ( length/type=0x800, source=00:00:00:00:00:02, destination=00:00:00:00:00:01) ns3::Ipv4Header (tos 0x0 ttl 63 id 0 protocol 1 offset (bytes) 0 flags [none] length: 1052 10.60.39.2 > 10.60.38.2) ns3::Icmpv4Header (type=0, code=0) ns3::Icmpv4Echo (identifier=0, sequence=0) ns3::EthernetTrailer (fcs=0)
+ 2 /NodeList/0/DeviceList/1/$ns3::CsmaNetDevice/TxQueue/Enqueue ns3::EthernetHeader ( length/type=0x800, source=00:00:00:00:00:01, destination=00:00:00:00:00:02) ns3::Ipv4Header (tos 0x0 ttl 64 id 1 protocol 1 offset (bytes) 0 flags [none] length: 1052 10.60.38.2 > 10.60.39.2) ns3::Icmpv4Header (type=8, code=0) ns3::Icmpv4Echo (identifier=0, sequence=1) ns3::EthernetTrailer (fcs=0)
- 2 /NodeList/0/DeviceList/1/$ns3::CsmaNetDevice/TxQueue/Dequeue ns3::EthernetHeader ( length/type=0x800, source=00:00:00:00:00:01, destination=00:00:00:00:00:02) ns3::Ipv4Header (tos 0x0 ttl 64 id 1 protocol 1 offset (bytes) 0 flags [none] length: 1052 10.60.38.2 > 10.60.39.2) ns3::Icmpv4Header (type=8, code=0) ns3::Icmpv4Echo (identifier=0, sequence=1) ns3::EthernetTrailer (fcs=0)
r 2.00371 /NodeList/2/DeviceList/1/$ns3::CsmaNetDevice/MacRx ns3::EthernetHeader ( length/type=0x800, source=00:00:00:00:00:01, destination=00:00:00:00:00:02) ns3::Ipv4Header (tos 0x0 ttl 64 id 1 protocol 1 offset (bytes) 0 flags [none] length: 1052 10.60.38.2 > 10.60.39.2) ns3::Icmpv4Header (type=8, code=0) ns3::Icmpv4Echo (identifier=0, sequence=1) ns3::EthernetTrailer (fcs=0)
+ 2.00371 /NodeList/2/DeviceList/2/$ns3::CsmaNetDevice/TxQueue/Enqueue ns3::EthernetHeader ( length/type=0x800, source=00:00:00:00:00:03, destination=00:00:00:00:00:04) ns3::Ipv4Header (tos 0x0 ttl 63 id 1 protocol 1 offset (bytes) 0 flags [none] length: 1052 10.60.38.2 > 10.60.39.2) ns3::Icmpv4Header (type=8, code=0) ns3::Icmpv4Echo (identifier=0, sequence=1) ns3::EthernetTrailer (fcs=0)
- 2.00371 /NodeList/2/DeviceList/2/$ns3::CsmaNetDevice/TxQueue/Dequeue ns3::EthernetHeader ( length/type=0x800, source=00:00:00:00:00:03, destination=00:00:00:00:00:04) ns3::Ipv4Header (tos 0x0 ttl 63 id 1 protocol 1 offset (bytes) 0 flags [none] length: 1052 10.60.38.2 > 10.60.39.2) ns3::Icmpv4Header (type=8, code=0) ns3::Icmpv4Echo (identifier=0, sequence=1) ns3::EthernetTrailer (fcs=0)
r 2.00742 /NodeList/1/DeviceList/1/$ns3::CsmaNetDevice/MacRx ns3::EthernetHeader ( length/type=0x800, source=00:00:00:00:00:03, destination=00:00:00:00:00:04) ns3::Ipv4Header (tos 0x0 ttl 63 id 1 protocol 1 offset (bytes) 0 flags [none] length: 1052 10.60.38.2 > 10.60.39.2) ns3::Icmpv4Header (type=8, code=0) ns3::Icmpv4Echo (identifier=0, sequence=1) ns3::EthernetTrailer (fcs=0)
+ 2.00742 /NodeList/1/DeviceList/1/$ns3::CsmaNetDevice/TxQueue/Enqueue ns3::EthernetHeader ( length/type=0x800, source=00:00:00:00:00:04, destination=00:00:00:00:00:03) ns3::Ipv4Header (tos 0x0 ttl 64 id 1 protocol 1 offset (bytes) 0 flags [none] length: 1052 10.60.39.2 > 10.60.38.2) ns3::Icmpv4Header (type=0, code=0) ns3::Icmpv4Echo (identifier=0, sequence=1) ns3::EthernetTrailer (fcs=0)
- 2.00742 /NodeList/1/DeviceList/1/$ns3::CsmaNetDevice/TxQueue/Dequeue ns3::EthernetHeader ( length/type=0x800, source=00:00:00:00:00:04, destination=00:00:00:00:00:03) ns3::Ipv4Header (tos 0x0 ttl 64 id 1 protocol 1 offset (bytes) 0 flags [none] length: 1052 10.60.39.2 > 10.60.38.2) ns3::Icmpv4Header (type=0, code=0) ns3::Icmpv4Echo (identifier=0, sequence=1) ns3::EthernetTrailer (fcs=0)
r 2.01114 /NodeList/2/DeviceList/2/$ns3::CsmaNetDevice/MacRx ns3::EthernetHeader ( length/type=0x800, source=00:00:00:00:00:04, destination=00:00:00:00:00:03) ns3::Ipv4Header (tos 0x0 ttl 64 id 1 protocol 1 offset (bytes) 0 flags [none] length: 1052 10.60.39.2 > 10.60.38.2) ns3::Icmpv4Header (type=0, code=0) ns3::Icmpv4Echo (identifier=0, sequence=1) ns3::EthernetTrailer (fcs=0)
+ 2.01114 /NodeList/2/DeviceList/1/$ns3::CsmaNetDevice/TxQueue/Enqueue ns3::EthernetHeader ( length/type=0x800, source=00:00:00:00:00:02, destination=00:00:00:00:00:01) ns3::Ipv4Header (tos 0x0 ttl 63 id 1 protocol 1 offset (bytes) 0 flags [none] length: 1052 10.60.39.2 > 10.60.38.2) ns3::Icmpv4Header (type=0, code=0) ns3::Icmpv4Echo (identifier=0, sequence=1) ns3::EthernetTrailer (fcs=0)
- 2.01114 /NodeList/2/DeviceList/1/$ns3::CsmaNetDevice/TxQueue/Dequeue ns3::EthernetHeader ( length/type=0x800, source=00:00:00:00:00:02, destination=00:00:00:00:00:01) ns3::Ipv4Header (tos 0x0 ttl 63 id 1 protocol 1 offset (bytes) 0 flags [none] length: 1052 10.60.39.2 > 10.60.38.2) ns3::Icmpv4Header (type=0, code=0) ns3::Icmpv4Echo (identifier=0, sequence=1) ns3::EthernetTrailer (fcs=0)
r 2.01485 /NodeList/0/DeviceList/1/$ns3::CsmaNetDevice/MacRx ns3::EthernetHeader ( length/type=0x800, source=00:00:00:00:00:02, destination=00:00:00:00:00:01) ns3::Ipv4Header (tos 0x0 ttl 63 id 1 protocol 1 offset (bytes) 0 flags [none] length: 1052 10.60.39.2 > 10.60.38.2) ns3::Icmpv4Header (type=0, code=0) ns3::Icmpv4Echo (identifier=0, sequence=1) ns3::EthernetTrailer (fcs=0)
